[Molden Format] 
[Atoms] Angs                                                                    
   C     1    6            10.7015255000        9.8210343000        9.7120357000
   C     2    6            12.0995255000        9.8210343000        9.7120357000
   C     3    6            12.7985255000       11.0310343000        9.7120357000
   C     4    6            12.0995255000       12.2420343000        9.7110357000
   C     5    6            10.7015255000       12.2420343000        9.7110357000
   C     6    6            10.0025255000       11.0310343000        9.7110357000
   H     7    1            10.1575255000        8.8790343000        9.7120357000
   H     8    1            12.6425255000        8.8790343000        9.7130357000
   H     9    1            13.8855255000       11.0310343000        9.7120357000
   H    10    1            12.6435255000       13.1840343000        9.7110357000
   H    11    1            10.1575255000       13.1840343000        9.7100357000
   H    12    1             8.9145255000       11.0310343000        9.7110357000
[STO]                                                                           
    1    0    0    0    1             1.4203689200        0.7831903684          
    1    1    0    0    0             1.4203689200        1.3565255101          
    1    0    1    0    0             1.4203689200        1.3565255101          
    1    0    0    1    0             1.4203689200        1.3565255101          
    2    0    0    0    1             1.4203689200        0.7831903684          
    2    1    0    0    0             1.4203689200        1.3565255101          
    2    0    1    0    0             1.4203689200        1.3565255101          
    2    0    0    1    0             1.4203689200        1.3565255101          
    3    0    0    0    1             1.4203689200        0.7831903684          
    3    1    0    0    0             1.4203689200        1.3565255101          
    3    0    1    0    0             1.4203689200        1.3565255101          
    3    0    0    1    0             1.4203689200        1.3565255101          
    4    0    0    0    1             1.4203689200        0.7831903684          
    4    1    0    0    0             1.4203689200        1.3565255101          
    4    0    1    0    0             1.4203689200        1.3565255101          
    4    0    0    1    0             1.4203689200        1.3565255101          
    5    0    0    0    1             1.4203689200        0.7831903684          
    5    1    0    0    0             1.4203689200        1.3565255101          
    5    0    1    0    0             1.4203689200        1.3565255101          
    5    0    0    1    0             1.4203689200        1.3565255101          
    6    0    0    0    1             1.4203689200        0.7831903684          
    6    1    0    0    0             1.4203689200        1.3565255101          
    6    0    1    0    0             1.4203689200        1.3565255101          
    6    0    0    1    0             1.4203689200        1.3565255101          
    7    0    0    0    0             1.4738648100        1.0095121222          
    8    0    0    0    0             1.4738648100        1.0095121222          
    9    0    0    0    0             1.4738648100        1.0095121222          
   10    0    0    0    0             1.4738648100        1.0095121222          
   11    0    0    0    0             1.4738648100        1.0095121222          
   12    0    0    0    0             1.4738648100        1.0095121222          
[MO]                                                                            
 Sym= A                                                                         
 Ene=       -28.4783336025                                                      
 Spin= Alpha                                                                    
 Occup=   2.0                                                                   
    1             0.3924454979                                                  
    2             0.0417695357                                                  
    3             0.0782023621                                                  
    4             0.0006877384                                                  
    5             0.3826973830                                                  
    6            -0.0475074185                                                  
    7             0.0771257499                                                  
    8             0.0016181930                                                  
    9             0.3864523806                                                  
   10            -0.0903449658                                                  
   11             0.0049717034                                                  
   12             0.0015560302                                                  
   13             0.3973518805                                                  
   14            -0.0450105694                                                  
   15            -0.0772108787                                                  
   16             0.0016166089                                                  
   17             0.3955567494                                                  
   18             0.0458661094                                                  
   19            -0.0763530341                                                  
   20             0.0005207842                                                  
   21             0.3938625961                                                  
   22             0.0885126903                                                  
   23            -0.0015824826                                                  
   24             0.0004105279                                                  
   25             0.0750456542                                                  
   26             0.0705629979                                                  
   27             0.0704894733                                                  
   28             0.0750024277                                                  
   29             0.0761669548                                                  
   30             0.0753444263                                                  
 Sym= A                                                                         
 Ene=       -25.3210195938                                                      
 Spin= Alpha                                                                    
 Occup=   2.0                                                                   
    1            -0.5274885551                                                  
    2             0.0137244243                                                  
    3            -0.0017088206                                                  
    4            -0.0007828770                                                  
    5            -0.2381405183                                                  
    6             0.1319519209                                                  
    7             0.0774930078                                                  
    8            -0.0008930796                                                  
    9             0.2859575497                                                  
   10             0.0016326935                                                  
   11             0.1447518314                                                  
   12             0.0012182345                                                  
   13             0.5261373042                                                  
   14             0.0107997249                                                  
   15             0.0000700996                                                  
   16             0.0023545598                                                  
   17             0.2400339842                                                  
   18             0.1328833699                                                  
   19             0.0811059844                                                  
   20             0.0005011104                                                  
   21            -0.2948692091                                                  
   22             0.0037708414                                                  
   23             0.1459931498                                                  
   24            -0.0002618350                                                  
   25            -0.1559926623                                                  
   26            -0.0682059413                                                  
   27             0.0805237264                                                  
   28             0.1529769557                                                  
   29             0.0718166589                                                  
   30            -0.0872115628                                                  
 Sym= A                                                                         
 Ene=       -25.1587451987                                                      
 Spin= Alpha                                                                    
 Occup=   2.0                                                                   
    1             0.0380034989                                                  
    2             0.1512371379                                                  
    3            -0.0863670994                                                  
    4             0.0006283650                                                  
    5             0.4726479791                                                  
    6             0.0655920388                                                  
    7             0.0355937948                                                  
    8             0.0025905909                                                  
    9             0.4453713275                                                  
   10             0.0022309184                                                  
   11            -0.0898113520                                                  
   12             0.0022123304                                                  
   13            -0.0206653152                                                  
   14             0.1514844234                                                  
   15            -0.0899435077                                                  
   16             0.0003528669                                                  
   17            -0.4704734644                                                  
   18             0.0739804568                                                  
   19             0.0300605402                                                  
   20            -0.0000796476                                                  
   21            -0.4376930424                                                  
   22             0.0100607333                                                  
   23            -0.0956947970                                                  
   24            -0.0000594300                                                  
   25             0.0108513495                                                  
   26             0.1364806260                                                  
   27             0.1264215569                                                  
   28            -0.0067298991                                                  
   29            -0.1433729505                                                  
   30            -0.1321781210                                                  
 Sym= A                                                                         
 Ene=       -20.6538497180                                                      
 Spin= Alpha                                                                    
 Occup=   2.0                                                                   
    1            -0.0358183070                                                  
    2             0.2618901391                                                  
    3            -0.1362064301                                                  
    4             0.0007928721                                                  
    5             0.3897932438                                                  
    6            -0.0420852918                                                  
    7            -0.1679341602                                                  
    8             0.0023574758                                                  
    9            -0.3380008246                                                  
   10            -0.1068245196                                                  
   11            -0.1767752585                                                  
   12            -0.0014627915                                                  
   13            -0.0538622462                                                  
   14            -0.2621724375                                                  
   15             0.1347309291                                                  
   16            -0.0007448539                                                  
   17             0.3888426898                                                  
   18             0.0352480147                                                  
   19             0.1746758951                                                  
   20            -0.0001156657                                                  
   21            -0.3442559314                                                  
   22             0.1148298411                                                  
   23             0.1718941435                                                  
   24            -0.0000401669                                                  
   25            -0.0190961718                                                  
   26             0.1931210322                                                  
   27            -0.1629491493                                                  
   28            -0.0257177899                                                  
   29             0.2054123714                                                  
   30            -0.1780375735                                                  
 Sym= A                                                                         
 Ene=       -20.5635308484                                                      
 Spin= Alpha                                                                    
 Occup=   2.0                                                                   
    1            -0.4169019877                                                  
    2             0.0475547055                                                  
    3             0.1374694981                                                  
    4            -0.0003581497                                                  
    5             0.1782603954                                                  
    6             0.2608836822                                                  
    7             0.0888398032                                                  
    8             0.0016179166                                                  
    9             0.2589825588                                                  
   10             0.0798599965                                                  
   11            -0.2366740212                                                  
   12             0.0015234546                                                  
   13            -0.4162022989                                                  
   14            -0.0393928122                                                  
   15            -0.1410056146                                                  
   16            -0.0020592646                                                  
   17             0.1673419240                                                  
   18            -0.2650279391                                                  
   19            -0.0864761074                                                  
   20            -0.0006803611                                                  
   21             0.2472961729                                                  
   22            -0.0850720403                                                  
   23             0.2392381936                                                  
   24            -0.0002675187                                                  
   25            -0.2192685016                                                  
   26             0.0874870206                                                  
   27             0.1249154994                                                  
   28            -0.2136131640                                                  
   29             0.0891551180                                                  
   30             0.1300251217                                                  
 Sym= A                                                                         
 Ene=       -17.3821865340                                                      
 Spin= Alpha                                                                    
 Occup=   2.0                                                                   
    1             0.0385092684                                                  
    2            -0.1715270837                                                  
    3            -0.3023479221                                                  
    4             0.0000852718                                                  
    5             0.0401867065                                                  
    6             0.1711367946                                                  
    7            -0.2895679868                                                  
    8             0.0011506823                                                  
    9             0.0508714734                                                  
   10             0.3393006375                                                  
   11            -0.0005826464                                                  
   12             0.0011940202                                                  
   13             0.0377319969                                                  
   14             0.1792627376                                                  
   15             0.2959862698                                                  
   16             0.0004887126                                                  
   17             0.0325320398                                                  
   18            -0.1789293018                                                  
   19             0.3076363747                                                  
   20            -0.0007725788                                                  
   21             0.0352683886                                                  
   22            -0.3536101464                                                  
   23            -0.0004066353                                                  
   24            -0.0005722917                                                  
   25             0.2171760292                                                  
   26             0.2024443533                                                  
   27             0.2024725452                                                  
   28             0.2095702044                                                  
   29             0.2219180139                                                  
   30             0.2184837853                                                  
 Sym= A                                                                         
 Ene=       -16.0997716476                                                      
 Spin= Alpha                                                                    
 Occup=   2.0                                                                   
    1            -0.2516443661                                                  
    2             0.1097211463                                                  
    3             0.1663275425                                                  
    4             0.0007544350                                                  
    5             0.2612801609                                                  
    6             0.0930464070                                                  
    7            -0.1776516956                                                  
    8             0.0030371868                                                  
    9            -0.2646688434                                                  
   10            -0.1870154673                                                  
   11            -0.0047059105                                                  
   12            -0.0007658056                                                  
   13             0.2553078157                                                  
   14             0.0904176587                                                  
   15             0.1831068212                                                  
   16             0.0023670895                                                  
   17            -0.2446129017                                                  
   18             0.1056865132                                                  
   19            -0.1692595619                                                  
   20             0.0014149126                                                  
   21             0.2479226478                                                  
   22            -0.1968030114                                                  
   23             0.0069252484                                                  
   24             0.0006375873                                                  
   25            -0.2563845422                                                  
   26             0.2496355629                                                  
   27            -0.2351513185                                                  
   28             0.2529914566                                                  
   29            -0.2564582259                                                  
   30             0.2520207667                                                  
 Sym= A                                                                         
 Ene=       -14.5516934412                                                      
 Spin= Alpha                                                                    
 Occup=   2.0                                                                   
    1             0.0015740199                                                  
    2             0.3470521655                                                  
    3            -0.2160348765                                                  
    4            -0.0003829809                                                  
    5            -0.0020751647                                                  
    6            -0.3535302801                                                  
    7            -0.1963869880                                                  
    8            -0.0016591828                                                  
    9            -0.0028569679                                                  
   10            -0.0198080852                                                  
   11             0.4064284284                                                  
   12            -0.0019205179                                                  
   13             0.0039239360                                                  
   14             0.3502953859                                                  
   15            -0.2140312367                                                  
   16            -0.0011667925                                                  
   17             0.0001377363                                                  
   18            -0.3552899336                                                  
   19            -0.2017878152                                                  
   20            -0.0012698159                                                  
   21            -0.0029927720                                                  
   22            -0.0134639467                                                  
   23             0.4093687258                                                  
   24            -0.0009630997                                                  
   25             0.0106462831                                                  
   26            -0.0060378430                                                  
   27            -0.0149284621                                                  
   28            -0.0051246416                                                  
   29             0.0025093892                                                  
   30             0.0084408030                                                  
 Sym= A                                                                         
 Ene=       -13.9620542622                                                      
 Spin= Alpha                                                                    
 Occup=   2.0                                                                   
    1            -0.0636204461                                                  
    2            -0.2471173589                                                  
    3            -0.3703610302                                                  
    4             0.0003551281                                                  
    5            -0.0423852279                                                  
    6             0.2383929377                                                  
    7            -0.2623486911                                                  
    8             0.0010826224                                                  
    9             0.0086314591                                                  
   10            -0.0869314795                                                  
   11             0.0870633145                                                  
   12             0.0012093001                                                  
   13             0.0575580810                                                  
   14            -0.2616607133                                                  
   15            -0.3525140494                                                  
   16             0.0022573635                                                  
   17             0.0532444999                                                  
   18             0.2438841959                                                  
   19            -0.2688741473                                                  
   20             0.0028505657                                                  
   21            -0.0125103499                                                  
   22            -0.1004320264                                                  
   23             0.1080534943                                                  
   24             0.0008803681                                                  
   25             0.3071274550                                                  
   26             0.2299219244                                                  
   27            -0.0565954414                                                  
   28            -0.2926170215                                                  
   29            -0.2479899225                                                  
   30             0.0703225944                                                  
 Sym= A                                                                         
 Ene=       -13.8957649601                                                      
 Spin= Alpha                                                                    
 Occup=   2.0                                                                   
    1             0.0228453390                                                  
    2            -0.0144352222                                                  
    3             0.1592617154                                                  
    4             0.0029476048                                                  
    5            -0.0442561873                                                  
    6             0.0854743008                                                  
    7            -0.3153125971                                                  
    8             0.0024679352                                                  
    9            -0.0493353070                                                  
   10             0.4677770660                                                  
   11             0.0289505655                                                  
   12             0.0025684942                                                  
   13            -0.0245942628                                                  
   14             0.0081546055                                                  
   15             0.1818344096                                                  