[Molden Format] 
[Atoms] Angs                                                                    
   C     1    6             0.5154563000       -2.4042093000      -17.2931920000
   H     2    1             0.8068503000       -2.3040753000      -16.2879595000
   H     3    1            -0.0719955000       -3.2791735000      -17.3690396000
   N     4    7            -0.2131032000       -1.2749988000      -18.0333763000
   H     5    1             0.3234785000       -0.8066092000      -18.7008013000
   C     6    6            -1.3535084000       -0.7700953000      -17.7025859000
   H     7    1            -1.8303732000        0.1389682000      -18.0243046000
   C     8    6            -2.2275084000       -1.4797224000      -16.9538445000
   H     9    1            -2.2336540000       -2.4467455000      -16.6153164000
   C    10    6            -3.4004192000       -0.8410134000      -16.4336285000
   C    11    6            -4.6254460000       -1.8269710000      -16.1745500000
   H    12    1            -4.7783145000       -2.5819889000      -16.9536798000
   H    13    1            -5.3122247000       -1.1861909000      -16.3798232000
   H    14    1            -4.4622208000       -2.3086765000      -15.2163028000
   C    15    6            -3.3369127000        0.3293797000      -15.7290163000
   H    16    1            -2.4624441000        0.8918688000      -15.4522779000
   C    17    6            -4.5746615000        1.0047204000      -15.4894938000
   H    18    1            -5.4748300000        0.7393407000      -16.1542346000
   C    19    6            -4.7507804000        1.8847282000      -14.3374486000
   H    20    1            -3.9395918000        1.6291009000      -13.6393905000
   C    21    6            -5.8477219000        2.5465027000      -13.8027279000
   C    22    6            -7.0147338000        2.8973402000      -14.6268265000
   H    23    1            -6.8370800000        3.5864829000      -15.4514160000
   H    24    1            -7.6607043000        3.2780330000      -14.0384798000
   H    25    1            -7.3438156000        1.9998624000      -15.0835879000
   C    26    6            -5.9235213000        2.9750956000      -12.4314922000
   H    27    1            -4.9078888000        3.4175835000      -12.0363845000
   C    28    6            -7.0110151000        2.4504127000      -11.9343169000
   H    29    1            -7.5399647000        1.6448532000      -12.4710092000
   C    30    6            -7.4562670000        2.6536488000      -10.5758236000
   C    31    6            -6.8876061000        1.8690711000       -9.4223549000
   C    32    6            -6.8311805000        0.3102340000       -9.8832976000
   H    33    1            -5.7838778000        0.4944691000      -10.5719841000
   H    34    1            -7.8487027000       -0.0882343000      -10.0353614000
   H    35    1            -6.6090722000       -0.3481996000       -8.8143962000
   C    36    6            -5.4939804000        2.2266289000       -9.0678430000
   H    37    1            -5.5524995000        2.3297116000       -7.9866301000
   H    38    1            -5.0268999000        3.1526974000       -9.5109519000
   H    39    1            -4.6749451000        1.5874271000       -9.6598231000
   C    40    6            -7.8157993000        1.9856039000       -8.2213283000
   H    41    1            -7.3423414000        1.3880050000       -7.4545570000
   H    42    1            -8.8949378000        1.5579966000       -8.4609344000
   C    43    6            -8.0144556000        3.4724922000       -7.9170163000
   H    44    1            -7.0541260000        4.0169926000       -8.0265096000
   H    45    1            -8.6940175000        3.3318428000       -6.9917337000
   C    46    6            -8.8568932000        4.0527432000       -9.1060714000
   H    47    1            -8.9585963000        5.1938240000       -8.9696694000
   H    48    1            -9.8884524000        3.5206302000       -9.1432613000
   C    49    6            -8.1407770000        3.8500901000      -10.3623990000
   C    50    6            -8.2422752000        4.8268669000      -11.4241205000
   H    51    1            -8.7358476000        4.3992999000      -12.3052077000
   H    52    1            -7.2061735000        5.1137359000      -11.8482320000
   H    53    1            -8.7810891000        5.7735099000      -11.1307269000
   H    54    1             1.4552058700       -2.7401065900      -17.9280005700
[STO]                                                                           
    1    0    0    0    1             1.4203689200        0.7831903684          
    1    1    0    0    0             1.4203689200        1.3565255101          
    1    0    1    0    0             1.4203689200        1.3565255101          
    1    0    0    1    0             1.4203689200        1.3565255101          
    2    0    0    0    0             1.4738648100        1.0095121222          
    3    0    0    0    0             1.4738648100        1.0095121222          
    4    0    0    0    1             1.3317523300        0.6666887082          
    4    1    0    0    0             1.3317523300        1.1547387155          
    4    0    1    0    0             1.3317523300        1.1547387155          
    4    0    0    1    0             1.3317523300        1.1547387155          
    5    0    0    0    0             1.4738648100        1.0095121222          
    6    0    0    0    1             1.4203689200        0.7831903684          
    6    1    0    0    0             1.4203689200        1.3565255101          
    6    0    1    0    0             1.4203689200        1.3565255101          
    6    0    0    1    0             1.4203689200        1.3565255101          
    7    0    0    0    0             1.4738648100        1.0095121222          
    8    0    0    0    1             1.4203689200        0.7831903684          
    8    1    0    0    0             1.4203689200        1.3565255101          
    8    0    1    0    0             1.4203689200        1.3565255101          
    8    0    0    1    0             1.4203689200        1.3565255101          
    9    0    0    0    0             1.4738648100        1.0095121222          
   10    0    0    0    1             1.4203689200        0.7831903684          
   10    1    0    0    0             1.4203689200        1.3565255101          
   10    0    1    0    0             1.4203689200        1.3565255101          
   10    0    0    1    0             1.4203689200        1.3565255101          
   11    0    0    0    1             1.4203689200        0.7831903684          
   11    1    0    0    0             1.4203689200        1.3565255101          
   11    0    1    0    0             1.4203689200        1.3565255101          
   11    0    0    1    0             1.4203689200        1.3565255101          
   12    0    0    0    0             1.4738648100        1.0095121222          
   13    0    0    0    0             1.4738648100        1.0095121222          
   14    0    0    0    0             1.4738648100        1.0095121222          
   15    0    0    0    1             1.4203689200        0.7831903684          
   15    1    0    0    0             1.4203689200        1.3565255101          
   15    0    1    0    0             1.4203689200        1.3565255101          
   15    0    0    1    0             1.4203689200        1.3565255101          
   16    0    0    0    0             1.4738648100        1.0095121222          
   17    0    0    0    1             1.4203689200        0.7831903684          
   17    1    0    0    0             1.4203689200        1.3565255101          
   17    0    1    0    0             1.4203689200        1.3565255101          
   17    0    0    1    0             1.4203689200        1.3565255101          
   18    0    0    0    0             1.4738648100        1.0095121222          
   19    0    0    0    1             1.4203689200        0.7831903684          
   19    1    0    0    0             1.4203689200        1.3565255101          
   19    0    1    0    0             1.4203689200        1.3565255101          
   19    0    0    1    0             1.4203689200        1.3565255101          
   20    0    0    0    0             1.4738648100        1.0095121222          
   21    0    0    0    1             1.4203689200        0.7831903684          
   21    1    0    0    0             1.4203689200        1.3565255101          
   21    0    1    0    0             1.4203689200        1.3565255101          
   21    0    0    1    0             1.4203689200        1.3565255101          
   22    0    0    0    1             1.4203689200        0.7831903684          
   22    1    0    0    0             1.4203689200        1.3565255101          
   22    0    1    0    0             1.4203689200        1.3565255101          
   22    0    0    1    0             1.4203689200        1.3565255101          
   23    0    0    0    0             1.4738648100        1.0095121222          
   24    0    0    0    0             1.4738648100        1.0095121222          
   25    0    0    0    0             1.4738648100        1.0095121222          
   26    0    0    0    1             1.4203689200        0.7831903684          
   26    1    0    0    0             1.4203689200        1.3565255101          
   26    0    1    0    0             1.4203689200        1.3565255101          
   26    0    0    1    0             1.4203689200        1.3565255101          
   27    0    0    0    0             1.4738648100        1.0095121222          
   28    0    0    0    1             1.4203689200        0.7831903684          
   28    1    0    0    0             1.4203689200        1.3565255101          
   28    0    1    0    0             1.4203689200        1.3565255101          
   28    0    0    1    0             1.4203689200        1.3565255101          
   29    0    0    0    0             1.4738648100        1.0095121222          
   30    0    0    0    1             1.4203689200        0.7831903684          
   30    1    0    0    0             1.4203689200        1.3565255101          
   30    0    1    0    0             1.4203689200        1.3565255101          
   30    0    0    1    0             1.4203689200        1.3565255101          
   31    0    0    0    1             1.4203689200        0.7831903684          
   31    1    0    0    0             1.4203689200        1.3565255101          
   31    0    1    0    0             1.4203689200        1.3565255101          
   31    0    0    1    0             1.4203689200        1.3565255101          
   32    0    0    0    1             1.4203689200        0.7831903684          
   32    1    0    0    0             1.4203689200        1.3565255101          
   32    0    1    0    0             1.4203689200        1.3565255101          
   32    0    0    1    0             1.4203689200        1.3565255101          
   33    0    0    0    0             1.4738648100        1.0095121222          
   34    0    0    0    0             1.4738648100        1.0095121222          
   35    0    0    0    0             1.4738648100        1.0095121222          
   36    0    0    0    1             1.4203689200        0.7831903684          
   36    1    0    0    0             1.4203689200        1.3565255101          
   36    0    1    0    0             1.4203689200        1.3565255101          
   36    0    0    1    0             1.4203689200        1.3565255101          
   37    0    0    0    0             1.4738648100        1.0095121222          
   38    0    0    0    0             1.4738648100        1.0095121222          
   39    0    0    0    0             1.4738648100        1.0095121222          
   40    0    0    0    1             1.4203689200        0.7831903684          
   40    1    0    0    0             1.4203689200        1.3565255101          
   40    0    1    0    0             1.4203689200        1.3565255101          
   40    0    0    1    0             1.4203689200        1.3565255101          
   41    0    0    0    0             1.4738648100        1.0095121222          
   42    0    0    0    0             1.4738648100        1.0095121222          
   43    0    0    0    1             1.4203689200        0.7831903684          
   43    1    0    0    0             1.4203689200        1.3565255101          
   43    0    1    0    0             1.4203689200        1.3565255101          
   43    0    0    1    0             1.4203689200        1.3565255101          
   44    0    0    0    0             1.4738648100        1.0095121222          
   45    0    0    0    0             1.4738648100        1.0095121222          
   46    0    0    0    1             1.4203689200        0.7831903684          
   46    1    0    0    0             1.4203689200        1.3565255101          
   46    0    1    0    0             1.4203689200        1.3565255101          
   46    0    0    1    0             1.4203689200        1.3565255101          
   47    0    0    0    0             1.4738648100        1.0095121222          
   48    0    0    0    0             1.4738648100        1.0095121222          
   49    0    0    0    1             1.4203689200        0.7831903684          
   49    1    0    0    0             1.4203689200        1.3565255101          
   49    0    1    0    0             1.4203689200        1.3565255101          
   49    0    0    1    0             1.4203689200        1.3565255101          
   50    0    0    0    1             1.4203689200        0.7831903684          
   50    1    0    0    0             1.4203689200        1.3565255101          
   50    0    1    0    0             1.4203689200        1.3565255101          
   50    0    0    1    0             1.4203689200        1.3565255101          
   51    0    0    0    0             1.4738648100        1.0095121222          
   52    0    0    0    0             1.4738648100        1.0095121222          
   53    0    0    0    0             1.4738648100        1.0095121222          
   54    0    0    0    0             1.4738648100        1.0095121222          
[MO]                                                                            
 Sym= A                                                                         
 Ene=       -32.1919027157                                                      
 Spin= Alpha                                                                    
 Occup=   2.0                                                                   
    1             0.2521438086                                                  
    2            -0.0686002578                                                  
    3             0.0963972904                                                  
    4            -0.0599976217                                                  
    5             0.0392214182                                                  
    6             0.0490551015                                                  
    7             0.8062759554                                                  
    8            -0.0424051662                                                  
    9             0.0338291840                                                  
   10             0.0199937161                                                  
   11             0.1838957342                                                  
   12             0.4060046336                                                  
   13             0.1601236205                                                  
   14            -0.0790334837                                                  
   15            -0.0394001848                                                  
   16             0.0561640838                                                  
   17             0.1316056396                                                  
   18             0.0683435152                                                  
   19             0.0111350866                                                  
   20            -0.0366258381                                                  
   21             0.0227827749                                                  
   22             0.0181809648                                                  
   23             0.0110281096                                                  
   24             0.0003057941                                                  
   25            -0.0051159984                                                  
   26             0.0014693610                                                  
   27             0.0010256413                                                  
   28             0.0000712119                                                  
   29            -0.0004039049                                                  
   30             0.0004126729                                                  
   31             0.0003929241                                                  
   32             0.0003334961                                                  
   33             0.0057329181                                                  
   34             0.0021796070                                                  
   35            -0.0021799813                                                  
   36            -0.0025660531                                                  
   37             0.0012210984                                                  
   38             0.0004646077                                                  
   39             0.0001951226                                                  
   40            -0.0001965870                                                  
   41            -0.0002489393                                                  
   42             0.0001539065                                                  
   43            -0.0000084239                                                  
   44             0.0000176512                                                  
   45            -0.0000134314                                                  
   46            -0.0000062724                                                  
   47             0.0000203463                                                  
   48            -0.0000200004                                                  
   49            -0.0000071928                                                  
   50             0.0000038671                                                  
   51             0.0000040420                                                  
   52            -0.0000039773                                                  
   53            -0.0000022930                                                  
   54             0.0000008877                                                  
   55            -0.0000014571                                                  
   56             0.0000003366                                                  
   57            -0.0000009182                                                  
   58             0.0000015727                                                  
   59            -0.0000037986                                                  
   60            -0.0000006288                                                  
   61             0.0000023572                                                  
   62             0.0000016608                                                  
   63            -0.0000001032                                                  
   64            -0.0000015455                                                  
   65            -0.0000008205                                                  
   66            -0.0000001450                                                  
   67             0.0000010864                                                  
   68            -0.0000004487                                                  
   69             0.0000001042                                                  
   70             0.0000002990                                                  
   71            -0.0000000606                                                  
   72            -0.0000000635                                                  
   73            -0.0000000065                                                  
   74            -0.0000000464                                                  
   75             0.0000000372                                                  
   76            -0.0000000222                                                  
   77            -0.0000000460                                                  
   78            -0.0000000292                                                  
   79             0.0000000198                                                  
   80             0.0000000210                                                  
   81            -0.0000000015                                                  
   82             0.0000000181                                                  
   83            -0.0000000186                                                  
   84            -0.0000000255                                                  
   85             0.0000001302                                                  
   86            -0.0000000597                                                  
   87             0.0000000986                                                  
   88             0.0000000933                                                  
   89            -0.0000000815                                                  
   90             0.0000000726                                                  
   91             0.0000000166                                                  
   92             0.0000000282                                                  
   93            -0.0000000304                                                  
   94            -0.0000000286                                                  
   95             0.0000000082                                                  
   96            -0.0000000006                                                  
   97            -0.0000000162                                                  
   98             0.0000000085                                                  
   99             0.0000000085                                                  
  100             0.0000000486                                                  
  101             0.0000000169                                                  
  102             0.0000000499                                                  
  103             0.0000000456                                                  
  104             0.0000000527                                                  
  105            -0.0000000757                                                  
  106            -0.0000001220                                                  
  107            -0.0000001618                                                  
  108             0.0000000616                                                  
  109             0.0000000233                                                  
  110             0.0000001748                                                  
  111             0.0000003213                                                  
  112             0.0000002176                                                  
  113            -0.0000000873                                                  
  114            -0.0000001236                                                  
  115            -0.0000000475                                                  
  116             0.0000000612                                                  
  117             0.0000000663                                                  
  118            -0.0000001865                                                  
  119            -0.0000000333                                                  
  120             0.0412171561                                                  
 Sym= A                                                                         
 Ene=       -26.6938779875                                                      
 Spin= Alpha                                                                    
 Occup=   2.0                                                                   
    1            -0.0032357168                                                  
    2             0.0002337978                                                  
    3            -0.0007692366                                                  
    4             0.0006589251                                                  
    5            -0.0006755375                                                  
    6            -0.0006819559                                                  
    7            -0.0050523700                                                  
    8            -0.0018544119                                                  
    9             0.0001614274                                                  
   10             0.0007355937                                                  
   11            -0.0019035524                                                  
   12             0.0072353201                                                  
   13            -0.0046861067                                                  
   14            -0.0000478701                                                  
   15             0.0027959038                                                  
   16             0.0024379808                                                  
   17             0.0185114412                                                  
   18            -0.0033117388                                                  
   19             0.0035285882                                                  
   20             0.0019967280                                                  
   21             0.0041939360                                                  
   22             0.0324563496                                                  
   23             0.0006756215                                                  
   24             0.0048475336                                                  
   25             0.0035601597                                                  
   26             0.0136280799                                                  
   27             0.0027712280                                                  
   28             0.0040452009                                                  
   29            -0.0002936181                                                  
   30             0.0023795847                                                  
   31             0.0046479821                                                  
   32             0.0028788690                                                  
   33             0.0445580973                                                  
   34            -0.0069718343                                                  
   35             0.0012508089                                                  
   36             0.0014962344                                                  
   37             0.0104359072                                                  
   38             0.0677226981                                                  
   39            -0.0015235363                                                  
   40             0.0073306453                                                  
   41             0.0146686328                                                  
   42             0.0139287498                                                  
   43             0.1473700849                                                  
   44            -0.0328634636                                                  
   45             0.0130093821                                                  
   46             0.0207416999                                                  
   47             0.0344507870                                                  
   48             0.2775139969                                                  
   49            -0.0135292838                                                  
   50             0.0015927985                                                  
   51             0.0401787803                                                  
   52             0.1487775556                                                  
   53             0.0263478621                                                  
   54            -0.0100216983                                                  
   55             0.0395856802                                                  
   56             0.0257798641                                                  
   57             0.0448949970                                                  
   58             0.0318890660                                                  
   59             0.3189114915                                                  
   60            -0.0533819109                                                  
   61            -0.0412187541                                                  
   62            -0.0104890222                                                  
   63             0.0569824963                                                  
   64             0.3648997125                                                  
   65             0.0301786774                                                  