[GEOM]
xyz = """8
Acrolein  coordinates  in  Angstrom
  O  -1.808864  -0.137998  0.000000
  C   1.769114   0.136549  0.000000
  C   0.588145  -0.434423  0.000000
  C  -0.695203   0.361447  0.000000
  H  -0.548852   1.455362  0.000000
  H   0.477859  -1.512556  0.000000
  H   2.688665  -0.434186  0.000000
  H   1.880903   1.213924  0.000000
"""

[QM]
exec = "MOLCAS"
ncore = 1 # if necessary
use_mpi = false # if nenessary

[QM.MOLCAS]
path="/home/shin/soft/OpenMolcas/build/pymolcas.py"
N = 24
F = 3

level0 = """
&gateway
Coord
$COORD_XYZ
Basis=ANO-S-MB
Group=Nosym

&SEWARD

&RASSCF
  nactel  =  6  0  0
  inactive=  12
  ras2  =  5
  ciroot  =  5  5  1

&CASPT2
  imag = 0.0
  ipea = 0.0
  multistate=5  1  2  3  4  5
  DWTYpe = 3

&ALASKA NAC;

&RASSI
  Nr  of  Job=1  5;  1  2  3  4  5
  EJob
$end
"""


