[Molden Format] 
[Atoms] Angs                                                                    
   C     1    6            22.7821087800       22.1089935300       22.0921468700
   C     2    6            21.4381051100       22.1089935300       22.0921468700
   C     3    6            23.5571074500       20.8629894300       22.1011495600
   C     4    6            24.7671055800       20.8229923200       22.8111505500
   C     5    6            25.5151057200       19.6481645100       22.8321504600
   C     6    6            25.0611090700       18.5181629700       22.1501493500
   C     7    6            23.8591074900       18.5621631100       21.4461422000
   C     8    6            23.1031060200       19.7281634800       21.4141416500
   H     9    1            25.1171088200       21.7129945800       23.3461475400
   H    10    1            26.4601063700       19.6121633100       23.3861494100
   H    11    1            25.6531071700       17.5961625600       22.1671485900
   H    12    1            23.5051083600       17.6721632500       20.9121418000
   H    13    1            22.1621060400       19.7611630000       20.8551406900
   C    14    6            20.6621003200       23.3549928700       22.0851469000
   C    15    6            19.4531869900       23.4059906000       22.7941513100
   C    16    6            18.7031865100       24.5799922900       22.8001499200
   C    17    6            19.1561865800       25.7009935400       22.1021509200
   C    18    6            20.3591036800       25.6479930900       21.3981437700
   C    19    6            21.1161065100       24.4809913600       21.3811397600
   H    20    1            19.1021871600       22.5239944500       23.3411502800
   H    21    1            17.7581882500       24.6219921100       23.3511495600
   H    22    1            18.5641861000       26.6219902000       22.1081495300
   H    23    1            20.7111048700       26.5309906000       20.8521366100
   H    24    1            22.0571064900       24.4399929000       20.8231401400
   H    25    1            23.3561062800       23.0439901400       22.0861482600
   H    26    1            20.8631014800       21.1739921600       22.0991468400
[STO]                                                                           
    1    0    0    0    1             1.4203689200        0.7831903684          
    1    1    0    0    0             1.4203689200        1.3565255101          
    1    0    1    0    0             1.4203689200        1.3565255101          
    1    0    0    1    0             1.4203689200        1.3565255101          
    2    0    0    0    1             1.4203689200        0.7831903684          
    2    1    0    0    0             1.4203689200        1.3565255101          
    2    0    1    0    0             1.4203689200        1.3565255101          
    2    0    0    1    0             1.4203689200        1.3565255101          
    3    0    0    0    1             1.4203689200        0.7831903684          
    3    1    0    0    0             1.4203689200        1.3565255101          
    3    0    1    0    0             1.4203689200        1.3565255101          
    3    0    0    1    0             1.4203689200        1.3565255101          
    4    0    0    0    1             1.4203689200        0.7831903684          
    4    1    0    0    0             1.4203689200        1.3565255101          
    4    0    1    0    0             1.4203689200        1.3565255101          
    4    0    0    1    0             1.4203689200        1.3565255101          
    5    0    0    0    1             1.4203689200        0.7831903684          
    5    1    0    0    0             1.4203689200        1.3565255101          
    5    0    1    0    0             1.4203689200        1.3565255101          
    5    0    0    1    0             1.4203689200        1.3565255101          
    6    0    0    0    1             1.4203689200        0.7831903684          
    6    1    0    0    0             1.4203689200        1.3565255101          
    6    0    1    0    0             1.4203689200        1.3565255101          
    6    0    0    1    0             1.4203689200        1.3565255101          
    7    0    0    0    1             1.4203689200        0.7831903684          
    7    1    0    0    0             1.4203689200        1.3565255101          
    7    0    1    0    0             1.4203689200        1.3565255101          
    7    0    0    1    0             1.4203689200        1.3565255101          
    8    0    0    0    1             1.4203689200        0.7831903684          
    8    1    0    0    0             1.4203689200        1.3565255101          
    8    0    1    0    0             1.4203689200        1.3565255101          
    8    0    0    1    0             1.4203689200        1.3565255101          
    9    0    0    0    0             1.4738648100        1.0095121222          
   10    0    0    0    0             1.4738648100        1.0095121222          
   11    0    0    0    0             1.4738648100        1.0095121222          
   12    0    0    0    0             1.4738648100        1.0095121222          
   13    0    0    0    0             1.4738648100        1.0095121222          
   14    0    0    0    1             1.4203689200        0.7831903684          
   14    1    0    0    0             1.4203689200        1.3565255101          
   14    0    1    0    0             1.4203689200        1.3565255101          
   14    0    0    1    0             1.4203689200        1.3565255101          
   15    0    0    0    1             1.4203689200        0.7831903684          
   15    1    0    0    0             1.4203689200        1.3565255101          
   15    0    1    0    0             1.4203689200        1.3565255101          
   15    0    0    1    0             1.4203689200        1.3565255101          
   16    0    0    0    1             1.4203689200        0.7831903684          
   16    1    0    0    0             1.4203689200        1.3565255101          
   16    0    1    0    0             1.4203689200        1.3565255101          
   16    0    0    1    0             1.4203689200        1.3565255101          
   17    0    0    0    1             1.4203689200        0.7831903684          
   17    1    0    0    0             1.4203689200        1.3565255101          
   17    0    1    0    0             1.4203689200        1.3565255101          
   17    0    0    1    0             1.4203689200        1.3565255101          
   18    0    0    0    1             1.4203689200        0.7831903684          
   18    1    0    0    0             1.4203689200        1.3565255101          
   18    0    1    0    0             1.4203689200        1.3565255101          
   18    0    0    1    0             1.4203689200        1.3565255101          
   19    0    0    0    1             1.4203689200        0.7831903684          
   19    1    0    0    0             1.4203689200        1.3565255101          
   19    0    1    0    0             1.4203689200        1.3565255101          
   19    0    0    1    0             1.4203689200        1.3565255101          
   20    0    0    0    0             1.4738648100        1.0095121222          
   21    0    0    0    0             1.4738648100        1.0095121222          
   22    0    0    0    0             1.4738648100        1.0095121222          
   23    0    0    0    0             1.4738648100        1.0095121222          
   24    0    0    0    0             1.4738648100        1.0095121222          
   25    0    0    0    0             1.4738648100        1.0095121222          
   26    0    0    0    0             1.4738648100        1.0095121222          
[MO]                                                                            
 Sym= A                                                                         
 Ene=       -28.4505421018                                                      
 Spin= Alpha                                                                    
 Occup=   2.0                                                                   
    1             0.2391028816                                                  
    2            -0.0104074681                                                  
    3            -0.0318874638                                                  
    4            -0.0009513934                                                  
    5             0.2351895660                                                  
    6             0.0125735170                                                  
    7             0.0289212001                                                  
    8            -0.0014694755                                                  
    9             0.3411144435                                                  
   10             0.0114345595                                                  
   11            -0.0261651959                                                  
   12             0.0003906577                                                  
   13             0.2725692114                                                  
   14            -0.0340260458                                                  
   15            -0.0384243151                                                  
   16            -0.0344132706                                                  
   17             0.2381117616                                                  
   18            -0.0512306411                                                  
   19             0.0069677172                                                  
   20            -0.0281735910                                                  
   21             0.2301525812                                                  
   22            -0.0311719896                                                  
   23             0.0480937482                                                  
   24            -0.0011985947                                                  
   25             0.2409464789                                                  
   26             0.0139302565                                                  
   27             0.0508319082                                                  
   28             0.0271039019                                                  
   29             0.2787059184                                                  
   30             0.0469992739                                                  
   31             0.0170276651                                                  
   32             0.0361750801                                                  
   33             0.0526075364                                                  
   34             0.0435653453                                                  
   35             0.0418028740                                                  
   36             0.0440663935                                                  
   37             0.0549645460                                                  
   38             0.3241982787                                                  
   39            -0.0098884430                                                  
   40             0.0232832129                                                  
   41            -0.0001650606                                                  
   42             0.2571301877                                                  
   43             0.0324475100                                                  
   44             0.0351721272                                                  
   45            -0.0331306642                                                  
   46             0.2232393572                                                  
   47             0.0480828699                                                  
   48            -0.0070109409                                                  
   49            -0.0263446453                                                  
   50             0.2156419550                                                  
   51             0.0291608373                                                  
   52            -0.0450337080                                                  
   53            -0.0005255947                                                  
   54             0.2256834812                                                  
   55            -0.0130600437                                                  
   56            -0.0473746102                                                  
   57             0.0258457401                                                  
   58             0.2622092668                                                  
   59            -0.0439759047                                                  
   60            -0.0163762446                                                  
   61             0.0343490898                                                  
   62             0.0496234120                                                  
   63             0.0407750464                                                  
   64             0.0392494217                                                  
   65             0.0414033715                                                  
   66             0.0516564232                                                  
   67             0.0527972944                                                  
   68             0.0524493179                                                  
 Sym= A                                                                         
 Ene=       -28.2785886177                                                      
 Spin= Alpha                                                                    
 Occup=   2.0                                                                   
    1             0.0699579054                                                  
    2             0.0422079275                                                  
    3            -0.0481115834                                                  
    4             0.0011968553                                                  
    5            -0.0845186529                                                  
    6             0.0415244625                                                  
    7            -0.0498582181                                                  
    8            -0.0004298552                                                  
    9             0.2910033570                                                  
   10             0.0311695263                                                  
   11            -0.0451731529                                                  
   12             0.0015656032                                                  
   13             0.2716677802                                                  
   14            -0.0253672545                                                  
   15            -0.0463910008                                                  
   16            -0.0325523069                                                  
   17             0.2588661195                                                  
   18            -0.0529335924                                                  
   19             0.0044882452                                                  
   20            -0.0301848700                                                  
   21             0.2545685974                                                  
   22            -0.0325963465                                                  
   23             0.0508962614                                                  
   24            -0.0010803907                                                  
   25             0.2590144611                                                  
   26             0.0176675086                                                  
   27             0.0506652030                                                  
   28             0.0290743178                                                  
   29             0.2691359166                                                  
   30             0.0527987876                                                  
   31             0.0035798635                                                  
   32             0.0334559353                                                  
   33             0.0515424451                                                  
   34             0.0483662587                                                  
   35             0.0473622829                                                  
   36             0.0482649189                                                  
   37             0.0503349140                                                  
   38            -0.3103106550                                                  
   39             0.0318246542                                                  
   40            -0.0461486320                                                  
   41            -0.0008207490                                                  
   42            -0.2869798099                                                  
   43            -0.0272362396                                                  
   44            -0.0477921466                                                  
   45             0.0352501906                                                  
   46            -0.2717554645                                                  
   47            -0.0556296734                                                  
   48             0.0052858367                                                  
   49             0.0316433536                                                  
   50            -0.2670981664                                                  
   51            -0.0341432856                                                  
   52             0.0533565447                                                  
   53             0.0004269719                                                  
   54            -0.2716775677                                                  
   55             0.0185421961                                                  
   56             0.0528506571                                                  
   57            -0.0309854736                                                  
   58            -0.2836058178                                                  
   59             0.0553131282                                                  
   60             0.0042788111                                                  
   61            -0.0354200627                                                  
   62            -0.0544518089                                                  
   63            -0.0506868801                                                  
   64            -0.0497992397                                                  
   65            -0.0507875329                                                  
   66            -0.0530175708                                                  
   67             0.0116269521                                                  
   68            -0.0149656650                                                  
 Sym= A                                                                         
 Ene=       -26.5644183460                                                      
 Spin= Alpha                                                                    
 Occup=   2.0                                                                   
    1             0.4615371757                                                  
    2            -0.0656365957                                                  
    3            -0.0206696553                                                  
    4            -0.0028376686                                                  
    5             0.4622571888                                                  
    6             0.0653986950                                                  
    7             0.0201233344                                                  
    8            -0.0032357696                                                  
    9             0.2149806423                                                  
   10            -0.0761838226                                                  
   11             0.0893923503                                                  
   12            -0.0043563003                                                  
   13            -0.0321538385                                                  
   14            -0.0569989855                                                  
   15             0.0655279383                                                  
   16            -0.0092516450                                                  
   17            -0.2270106383                                                  
   18             0.0198202644                                                  
   19             0.0344376219                                                  
   20             0.0246420865                                                  
   21            -0.2840404862                                                  
   22             0.0161264673                                                  
   23            -0.0290870240                                                  
   24            -0.0007566622                                                  
   25            -0.2108992834                                                  
   26            -0.0430094341                                                  
   27            -0.0011486879                                                  
   28            -0.0256781557                                                  
   29            -0.0005800160                                                  
   30            -0.0410215231                                                  
   31             0.0824871587                                                  
   32             0.0087022383                                                  
   33             0.0017655233                                                  
   34            -0.0528314994                                                  
   35            -0.0669854834                                                  
   36            -0.0485762482                                                  
   37             0.0132373632                                                  
   38             0.2145143625                                                  
   39             0.0760503930                                                  
   40            -0.0897179414                                                  
   41            -0.0032960700                                                  
   42            -0.0325379204                                                  
   43             0.0569841611                                                  
   44            -0.0657528333                                                  
   45            -0.0083539327                                                  
   46            -0.2273682672                                                  
   47            -0.0198509078                                                  
   48            -0.0341175679                                                  
   49             0.0251509694                                                  
   50            -0.2847697495                                                  
   51            -0.0161251890                                                  
   52             0.0289910885                                                  
   53            -0.0010986866                                                  
   54            -0.2115006735                                                  
   55             0.0430673319                                                  
   56             0.0008672230                                                  
   57            -0.0255174656                                                  
   58            -0.0013059815                                                  
   59             0.0409785484                                                  
   60            -0.0821660621                                                  
   61             0.0097584549                                                  
   62             0.0016581487                                                  
   63            -0.0528114248                                                  
   64            -0.0673195766                                                  
   65            -0.0489285985                                                  
   66             0.0129661125                                                  
   67             0.1091381315                                                  
   68             0.1099715824                                                  
 Sym= A                                                                         
 Ene=       -25.3108463870                                                      
 Spin= Alpha                                                                    
 Occup=   2.0                                                                   
    1            -0.1759310989                                                  
    2            -0.0935325049                                                  
    3             0.0875263629                                                  
    4            -0.0026511351                                                  
    5             0.1758065991                                                  
    6            -0.0938715173                                                  
    7             0.0874202511                                                  
    8             0.0014245592                                                  
    9            -0.3686870986                                                  
   10             0.0080234809                                                  
   11            -0.0404394688                                                  
   12            -0.0065146509                                                  
   13            -0.1675656094                                                  
   14             0.0848339914                                                  
   15            -0.0622031302                                                  
   16             0.0294928124                                                  
   17             0.1800610902                                                  
   18             0.0070116718                                                  
   19            -0.0893817705                                                  
   20            -0.0281285053                                                  
   21             0.3572069130                                                  
   22            -0.0103591868                                                  
   23             0.0024203094                                                  
   24            -0.0053389335                                                  
   25             0.2289844428                                                  
   26             0.0694254512                                                  
   27            -0.0377011928                                                  
   28             0.0281500799                                                  
   29            -0.1083489645                                                  
   30             0.0198899269                                                  
   31            -0.1083749184                                                  
   32            -0.0273179961                                                  
   33            -0.0516335592                                                  
   34             0.0500617688                                                  
   35             0.1000768839                                                  
   36             0.0638653408                                                  
   37            -0.0325753772                                                  
   38             0.3686032285                                                  
   39             0.0074953236                                                  
   40            -0.0406222275                                                  
   41             0.0070006008                                                  
   42             0.1684340212                                                  
   43             0.0846678748                                                  
   44            -0.0625284823                                                  
   45            -0.0287865042                                                  
   46            -0.1789316757                                                  
   47             0.0071407336                                                  
   48            -0.0889984107                                                  
   49             0.0292885999                                                  
   50            -0.3571034643                                                  
   51            -0.0104294794                                                  
   52             0.0021024432                                                  
   53             0.0055318397                                                  